LAMMPS data file via write_data, version 23 Jun 2022, timestep = 30000000

13579 atoms
11 atom types
8978 bonds
4 bond types
6073 angles
3 angle types
576 dihedrals
1 dihedral types

-0.21680069849796804 37.28829408250318 xlo xhi
0.7734410893418796 33.25453501062261 ylo yhi
-41.36672410133577 71.78490728688602 zlo zhi

Masses

1 15.9994
2 40.0800
3 30.9738
4 15.9994
5 1.0080
6 15.9994
7 1.0080
8 22.9898
9 35.4530
10 19.8200
11 0.5443

Pair Coeffs # lj/cut/coul/long

1 0.0699984928 3.0290604000
2 0.1299984877 2.9399690301
3 0.2800057201 3.8308580628
4 0.0800014955 3.2963200383
5 0.0000000000 0.0000000000
6 0.1521000000 3.1507000000
7 0.0460000000 0.2245000000
8 0.0469000000 2.5136000000
9 0.1500000000 4.0445000000
10 0.0608000000 3.3495972207
11 0.0000000000 0.0000000000

Bond Coeffs # harmonic

1 430 1.57
2 500 0.94
3 500 0.94
4 450 0.9572

Angle Coeffs # harmonic

1 50 115
2 125 109.47
3 55 104.52

Dihedral Coeffs # harmonic

1 0 1 2

Atoms

4522 1500 6 -0.834 6.329630355470751 4.785958112600257 -35.031734217345935 -1 1 0
3960 1500 7 0.417 5.425757888790237 4.809951379602437 -34.7176338463001 -1 1 0
8912 1776 7 0.417 1.2518790143900673 3.0367991580524545 -35.50867180913256 11 10 1
4523 1500 7 0.417 6.30366943548538 4.207005127304116 -35.79354388666036 -1 1 0
11283 3997 7 0.417 1.069994894076344 7.741070344243142 -35.62272559371434 1 -2 1
11279 3997 7 0.417 2.11094762915446 7.65971523826079 -36.718925846805426 1 -2 1
4094 383 6 -0.834 1.614665864245574 4.698247546160441 -34.68840150519252 -1 -2 0
11280 3997 6 -0.834 1.5686225252863037 7.1153617727929985 -36.148154956314684 1 -2 1
13530 2146 7 0.417 4.360034311109284 2.797151533031313 -38.174155177607204 -6 -1 0
510 2146 6 -0.834 5.14366702154834 2.9641225672263354 -37.65045682367141 -6 -1 0
10725 2889 7 0.417 1.94152700300734 7.210593690756846 -38.79119008723179 5 8 1
10723 2889 6 -0.834 2.5335533837984796 7.774614399765567 -39.28878765479797 5 8 1
511 2146 7 0.417 5.056329567150862 2.382106058627634 -36.89557662438978 -6 -1 0
10724 2889 7 0.417 2.6907431132613215 7.297872318271965 -40.10378655781715 5 8 1
3295 1201 7 0.417 0.5855825099929639 5.480686739309415 -40.61396227772784 -4 3 0
12627 3165 6 -0.834 6.828442979810552 5.122209016386878 -38.48976255595459 3 -15 0
3293 1201 6 -0.834 1.2759781831154893 5.195221204227268 -40.015563937645126 -4 3 0
12628 3165 7 0.417 6.240086397884515 4.502067170767347 -38.05909039197785 3 -15 0
3546 383 7 0.417 1.6337539400285244 5.609238077416552 -34.981570640710515 -1 -2 0
8050 2649 6 -0.834 8.886146362798033 6.364840528536222 -35.15073252922475 -4 3 1
226 2076 7 0.417 6.509723123171843 2.240194890457691 -39.001639682774886 6 4 0
3292 1201 7 0.417 1.8453180373836022 4.643389600532477 -40.55180207717684 -4 3 0
12551 3165 7 0.417 6.245275037481749 5.7321716870118244 -38.941513383760764 3 -15 0
12339 2881 7 0.417 4.569859019007391 7.923990303189543 -39.41440649271499 3 0 1
2279 2096 7 0.417 2.1641817419966523 2.3660806081783687 -38.87010366188788 1 -1 0
8046 2649 7 0.417 8.100467568597507 5.8546225937082745 -35.34721670415031 -4 3 1
12257 2881 7 0.417 6.02898917767709 8.174365791999122 -39.730819516587054 3 0 1
12341 2881 6 -0.834 5.436663019070182 7.522046310747824 -39.3568588451791 3 0 1
8005 634 7 0.417 -0.007863674560751571 6.745612775668006 -37.55282413152826 0 0 1
8528 3038 7 0.417 8.675730552223518 3.142699742632464 -36.478023731898894 -7 3 1
8529 3038 6 -0.834 8.017587347673818 2.4535720702931316 -36.387638974790384 -7 3 1
7930 3038 7 0.417 8.083623546978433 2.1770475330793406 -35.473643626646776 -7 3 1
9406 1728 7 0.417 8.647223981264256 4.847037640556876 -38.38627078950316 0 4 1
9574 3946 7 0.417 8.933284982859002 2.11127667763651 -40.17443368529041 3 -8 1
10679 819 7 0.417 5.927856511050454 2.0083462394392875 -34.78518664717161 8 -3 1
2278 2096 6 -0.834 3.0472674915684688 2.285461102545694 -39.23049175334987 1 -1 0
229 2076 6 -0.834 7.063021841526222 1.8196166509236922 -39.65981192973173 6 4 0
4255 3114 7 0.417 8.694316099531653 8.70325891476404 -37.40055095390521 4 -8 0
2369 2103 7 0.417 8.63151183573834 7.465615573423761 -40.81535217877085 -6 -4 0
340 2177 7 0.417 6.341578028038085 8.892116259435491 -36.38633790660173 3 6 0
264 2177 7 0.417 5.450349686605398 8.20860619926129 -35.37126059087798 3 6 0
4256 3114 6 -0.834 8.382542645493277 8.635768472959764 -36.498078905049155 4 -8 0
4254 3114 7 0.417 8.802418395406423 7.845849800363388 -36.15756515620865 4 -8 0
12754 1774 6 -0.834 0.43979597024833283 2.72120890315474 -38.776344891237045 2 5 1
8913 1776 6 -0.834 0.8584700184822671 2.243164956962339 -35.87142621107693 11 10 1
2508 196 7 0.417 7.575634532692903 4.394024401327593 -40.85502765318766 2 -6 0
12625 771 7 0.417 5.960749324676117 2.2033260530819754 -41.08116934051412 4 -8 1
8999 1776 7 0.417 0.6454217886216085 2.472758872819225 -36.77592072055798 11 10 1
2276 2096 7 0.417 2.950162578109099 2.509636699896932 -40.155980173830294 1 -1 0
10675 819 7 0.417 4.539152945313247 1.5799871980042575 -34.36106898547901 8 -3 1
10198 819 6 -0.834 5.080403522249222 1.7337851571316958 -35.13541365577355 8 -3 1
228 2076 7 0.417 7.093383932767054 0.9000811105060738 -39.39571200539073 6 4 0
12755 1774 7 0.417 0.48159797731160603 3.6750399367307294 -38.844729826829976 2 5 1
2020 4005 7 0.417 13.188988902258608 3.1055762383477368 -40.5520752632673 -5 -3 1
4864 324 7 0.417 11.713053464362694 6.990494743859079 -38.25924798679142 -3 5 0
7996 3784 6 -0.834 18.047466998615032 7.604089210919266 -35.335942641919644 2 -4 1
4325 324 6 -0.834 10.972521119729267 7.371846522213346 -37.78765256825165 -3 5 0
4324 324 7 0.417 10.608803131833673 8.017347371600696 -38.3936676554219 -3 5 0
10885 906 7 0.417 16.74931479131567 3.9601324390124524 -34.54280144871047 -4 3 1
12784 726 7 0.417 15.791637029902363 6.711932182813678 -41.11323910363615 -2 3 1
12867 88 7 0.417 13.218786591576317 6.0699916731154575 -39.893224576789834 -1 -8 0
9330 1728 7 0.417 9.932141295193043 4.595118159970687 -37.62641149184549 0 4 1
12208 2967 6 -0.834 10.497183148142634 3.866847513432286 -35.932848075674634 -4 -1 1
11649 2967 7 0.417 10.623811969294858 4.70488423305447 -35.488015879131446 -4 -1 1
12209 2967 7 0.417 11.382463296257265 3.5242361988956548 -36.05579791893663 -4 -1 1
9577 3946 7 0.417 9.788643312265233 3.2937602887588913 -39.77199854789638 3 -8 1
4008 1425 6 -0.834 11.893990491434733 6.732779255539908 -35.33673298965108 7 6 0
3641 1285 7 0.417 15.77773944219752 4.853390479203219 -39.567845538108955 -4 1 0
3556 1285 6 -0.834 15.791934244175073 4.5607573455858965 -38.656595035867575 -4 1 0
10762 2878 7 0.417 14.204347774191039 6.606713647512684 -38.014226673518955 3 2 1
3559 1285 7 0.417 16.38873920188017 3.8124016995075127 -38.65412955394129 -4 1 0
4007 1425 7 0.417 12.357795190377072 7.563191450676777 -35.22940949194866 7 6 0
11361 946 7 0.417 12.061519905059175 2.3177402139155294 -38.575125959282715 -2 -3 1
10895 2056 7 0.417 14.656532410948962 8.583988322272019 -37.617880381107895 -4 2 0
10083 869 6 -0.834 15.797325360963482 5.453287424625643 -35.12951569818841 1 12 1
12786 726 6 -0.834 16.666867362230366 6.581212996513775 -40.74840400625014 -2 3 1
9328 1728 6 -0.834 9.555179831873298 4.56857969787391 -38.505848896822535 0 4 1
10084 869 7 0.417 16.235606743470246 5.286132941612447 -35.96389228105203 1 12 1
10842 2878 6 -0.834 15.095549239180936 6.868760113737316 -37.78333391590961 3 2 1
10839 2878 7 0.417 15.645746368093821 6.151514312791546 -38.09807034015533 3 2 1
8299 1641 6 -0.834 18.0774003395427 5.532377133657909 -36.92000564745199 0 0 1
10082 869 7 0.417 15.775334732727488 6.4074690617164425 -35.056914062637716 1 12 1
12864 88 7 0.417 12.541644687142018 4.9548448268152905 -39.12525139335548 -1 -8 0
11363 946 6 -0.834 12.056013322513007 1.6256028913516216 -37.91396705707614 -2 -3 1
12866 88 6 -0.834 12.824642040570838 5.865735226516852 -39.04520125201231 -1 -8 0
2289 2103 7 0.417 9.33032732113745 6.287131109263313 -40.171388905400605 -6 -4 0
11442 946 7 0.417 11.12904875313582 1.4859858374713422 -37.72040967078531 -2 -3 1
9575 3946 6 -0.834 9.800981818544948 2.4954248666168177 -40.299941425296204 3 -8 1
1962 2185 7 0.417 18.033984169090566 7.094991661210621 -39.55539067878839 -6 -4 0
4009 1425 7 0.417 11.545261931118393 6.766053895070725 -36.22751626970567 7 6 0
10788 797 6 -0.834 16.892201156029646 2.239140743338618 -37.19224206820069 6 -5 1
10787 797 7 0.417 17.202809999123506 2.7485168738184096 -36.44372829250932 6 -5 1
12596 2972 7 0.417 13.469658748081306 2.507266844330665 -37.35646864957549 0 -7 1
12050 2972 7 0.417 14.4652144132039 3.6433757505404256 -37.45640620776238 0 -7 1
12595 2972 6 -0.834 14.202291260641944 2.9145699847193254 -36.89433002035692 0 -7 1
8302 1641 7 0.417 18.448871995654375 6.065762768570355 -37.62266031590467 0 0 1
10789 797 7 0.417 15.938608529601018 2.2485345640936294 -37.10981721950453 6 -5 1
11776 658 7 0.417 14.190791397447375 8.812186793481535 -34.60677581391508 11 1 1
9356 3785 7 0.417 18.341674316784793 1.250532707068984 -38.11224569950781 1 -6 1
2094 4005 7 0.417 11.679465435551867 2.9927793136340224 -40.574058388095736 -5 -3 1
11969 858 7 0.417 10.70160029244437 0.8779633210031444 -40.569630109872904 -4 -5 1
2096 4005 6 -0.834 12.40032967780202 3.413657072863074 -40.10561951964941 -5 -3 1
11570 2014 7 0.417 13.476990748018027 3.0499093086765146 -35.20936383169792 2 10 1
11082 2014 6 -0.834 12.805498141267005 2.8020025093464587 -34.573865564525946 2 10 1
7998 3784 7 0.417 17.55778003307909 8.3149938114429 -35.74951193198972 2 -4 1
1936 1087 7 0.417 9.389012339476905 8.718831069672623 -34.45897587811303 0 11 0
2372 2103 6 -0.834 9.219669453503018 6.735853843685548 -41.00961114158894 -6 -4 0
7994 3784 7 0.417 17.850381793350817 6.83454284745193 -35.86995777956435 2 -4 1
12785 726 7 0.417 16.91983828768302 5.7051592396779345 -41.03952688526808 -2 3 1
3095 3234 7 0.417 2.801507509856676 15.704752185960206 -36.74737364654927 -7 -3 0
11605 831 7 0.417 3.4707550606976167 9.38946901352414 -39.07841812213046 -3 2 1
3978 2380 6 -0.834 7.329066479484941 9.22715124503385 -41.05784224130341 6 -1 0
9168 1831 7 0.417 8.343110023852885 14.254946083356646 -41.01857198756592 2 11 1
3727 3238 7 0.417 6.2325931570586 13.694974671871572 -40.70254651459441 -2 -10 0
12131 3974 7 0.417 0.15313150923387006 15.36416238775944 -41.1592808529792 -2 -4 1
3030 1241 7 0.417 0.8229641281754254 16.654456916436178 -39.56184625045269 -6 2 0
3091 3234 7 0.417 3.991101658261938 16.611601074713146 -36.51423474790451 -7 -3 0
10989 2856 7 0.417 0.9043274972683122 9.329278867991336 -39.34986984070565 0 -10 1
359 1176 7 0.417 7.143823865319628 11.774985797224746 -36.23912493647977 -6 -3 0
10203 1678 7 0.417 3.511284244029378 16.66253846384713 -40.263337953110344 5 -2 1
358 1176 6 -0.834 7.728176659035538 11.692176786654818 -36.99271027417884 -6 -3 0
10275 897 7 0.417 8.720595165893288 9.26995229882215 -39.9745666653131 1 6 1
13445 3049 6 -0.834 0.11777468514154624 13.62039645324644 -38.77344456821917 1 1 1
10533 1651 6 -0.834 8.983902644161605 16.051911391735356 -35.31382917728415 4 -2 1
13448 3049 7 0.417 0.8185739704135486 13.533891081682746 -39.41967536322317 1 1 1
11159 1618 6 -0.834 5.744989428759288 13.688332410163975 -37.73163610606576 3 10 1
357 1176 7 0.417 8.108188448728477 10.81786208158007 -36.90678846262866 -6 -3 0
2238 30 7 0.417 0.4561395415729874 10.431731131611446 -36.41948185321302 9 -1 0
474 1947 7 0.417 8.940292445069094 13.020581664695273 -37.7382142459421 -3 3 1
1694 30 6 -0.834 1.1199931914972214 10.087423617890192 -37.01694973157862 9 -1 0
1695 30 7 0.417 1.9419760576776728 10.46781384023061 -36.70732612110634 9 -1 0
4828 2406 6 -0.834 6.012670800973318 12.732878676482326 -34.81398834969211 2 3 0
11579 4084 7 0.417 2.3469151070018475 12.257315113800766 -40.62070510629503 -4 3 1
11580 4084 6 -0.834 2.199587090268955 13.144060134473754 -40.29177655473777 -4 3 1
4827 2406 7 0.417 6.26233050448543 13.65042872865559 -34.70449497572241 2 3 0
9864 2642 6 -0.834 8.816522523933171 15.797159617999963 -40.63739077497897 1 -12 1
11158 1618 7 0.417 6.486254243511531 13.09260086364093 -37.62278053884685 3 10 1
11499 4084 7 0.417 2.422348165608429 13.713339408419387 -41.02833177894418 -4 3 1
368 1159 6 -0.834 3.756055088772431 11.44304271212031 -36.36725680914711 -2 -1 0
13392 1159 7 0.417 4.618225559431386 11.686224866791092 -36.02999684395823 -2 -1 0
266 2177 6 -0.834 5.87658132757007 9.043812170593833 -35.5635490475069 3 6 0
956 3088 7 0.417 1.4957268228194973 13.835013221997023 -37.39183722069661 -4 12 0
953 3088 6 -0.834 2.2265916699805506 14.088565557127076 -36.82812983343411 -4 12 0
955 3088 7 0.417 2.9283888763929364 13.47895442801931 -37.05632684276201 -4 12 0
369 1159 7 0.417 3.904529349110226 11.258161169555166 -37.29461208880644 -2 -1 0
11156 1618 7 0.417 5.2871238012183195 13.362615501690435 -38.50654431033546 3 10 1
9866 2642 7 0.417 8.867269586086792 16.063843587083248 -39.719502781079946 1 -12 1
9272 2693 7 0.417 8.981043811750801 16.524851055709437 -37.00348460224782 5 -5 1
3728 3238 6 -0.834 5.300041675236002 13.884746003207534 -40.599809374222 -2 -10 0
2483 2413 7 0.417 6.653065612285306 16.69201586813801 -36.955325594099655 2 3 0
9271 2693 6 -0.834 8.896668113094979 16.59688039986313 -37.95422389273913 5 -5 1
10206 1678 6 -0.834 2.727391316108307 16.87292799261289 -39.755926348138196 5 -2 1
422 4094 7 0.417 1.2581416753827597 10.632912060434972 -41.10756786864855 1 12 1
3092 3234 6 -0.834 3.0401889318834954 16.62333789118917 -36.62308209419029 -7 -3 0
2484 2413 6 -0.834 5.775727436200874 16.314478166789357 -37.01828161203398 2 3 0
10691 1678 7 0.417 3.0396411151738274 16.954903637562882 -38.854819327014134 5 -2 1
3028 2413 7 0.417 5.8872588870953075 15.538415885060154 -37.567375821230826 2 3 0
13446 3049 7 0.417 0.035278245830914795 14.563735097342258 -38.63371968190309 1 1 1
4045 3475 7 0.417 5.892306096473018 16.807180587050187 -39.857529901027526 -5 -8 0
2724 1032 7 0.417 5.484258215515372 16.777733317485833 -35.34764926690784 -13 -5 1
9167 1831 6 -0.834 7.862168040558709 13.429080901476238 -41.07204262617175 2 11 1
10991 2856 6 -0.834 0.02516290328450993 9.313016565069134 -39.72805683624693 0 -10 1
11607 831 6 -0.834 3.824038868757497 10.271727739803428 -38.9642795232783 -3 2 1
3027 1241 7 0.417 0.487094814004171 16.968501692234252 -38.11948149819387 -6 2 0
9434 3847 7 0.417 3.620146215532659 11.42047201181478 -34.43872500394982 3 -2 1
11608 831 7 0.417 3.4889950109109464 10.76327194150102 -39.71417601586451 -3 2 1
1068 1929 7 0.417 1.4114369165254974 14.315865768642947 -35.22030464825343 -3 3 1
3029 1241 6 -0.834 0.22831565697919007 16.41019949528477 -38.85265776443618 -6 2 0
10534 1651 7 0.417 9.084566668851705 16.774109837106998 -34.693739396255545 4 -2 1
3975 2380 7 0.417 6.608095733279071 9.856694208757837 -41.04806122009348 6 -1 0
9306 2642 7 0.417 8.812677446589054 16.619949111576783 -41.12649063930126 1 -12 1
3271 1329 7 0.417 17.788350087330542 14.699516755130853 -37.2323222211868 -6 -4 0
9689 897 6 -0.834 9.374735592543004 9.26756198137019 -39.275773354946395 1 6 1
2004 1306 6 -0.834 12.230197590361852 15.112732113037481 -40.97063344281448 -7 -2 0
10330 2110 6 -0.834 17.74835441658998 14.943380153142058 -39.11250774848374 0 5 0
9843 3819 7 0.417 14.955218893985801 16.740520708154232 -35.983647389377985 -10 4 1
10897 2056 6 -0.834 14.6609589443822 9.493130845899625 -37.318453561779435 -4 2 0
10900 2056 7 0.417 14.104159701275147 9.492083123832499 -36.53987230728083 -4 2 0
8174 1738 6 -0.834 17.07168553916866 9.860512931339597 -36.54660393333503 5 4 1
8175 1738 7 0.417 17.007391542101928 10.74993198346298 -36.19873034301444 5 4 1
8173 1738 7 0.417 16.19598951399753 9.670597345728913 -36.88321642502643 5 4 1
10535 1651 7 0.417 9.407543455275315 15.307656445358331 -34.88624312287026 4 -2 1
637 207 6 -0.834 17.394767502807724 15.709816153528644 -34.3325527002354 5 1 0
10220 3891 7 0.417 18.236497604477837 11.806283428266692 -34.47836693908418 0 -3 1
475 1947 7 0.417 9.329051751198168 14.46922820659633 -37.94351201531252 -3 3 1
472 1947 6 -0.834 9.70056339492284 13.59888551192348 -37.799636001650015 -3 3 1
305 1986 7 0.417 17.228650615264474 12.985764728347549 -35.78358355903676 -2 8 1
4214 3330 7 0.417 15.53715738833477 16.257838290086926 -41.301063812011705 -2 9 0
11953 1951 6 -0.834 10.878776664038227 11.615593356358923 -39.21886820998381 -6 -6 1
10446 1838 7 0.417 14.144221508483449 16.261047729671752 -39.514436255967404 7 -3 1
10271 897 7 0.417 9.810342125998952 10.116483658256517 -39.35191328887874 1 6 1
992 1164 7 0.417 15.743762015497117 10.70893264909021 -40.759442427036475 9 1 0
371 2927 7 0.417 11.16923046880715 13.435828314015678 -36.63566599984424 2 0 1
370 2927 6 -0.834 11.72701260112858 13.80659693588194 -35.95183368505605 2 0 1
10485 3961 6 -0.834 13.980506297232365 11.822796097785162 -38.421597564524426 2 2 1
10488 3961 7 0.417 14.230972594007568 10.945647837525213 -38.131607868835985 2 2 1
9675 845 7 0.417 12.366190191036946 14.58097210884928 -37.87313100274825 13 1 1
290 2927 7 0.417 11.404597260885797 13.414496226732865 -35.14034149082683 2 0 1
4737 3248 7 0.417 13.392715679654499 13.701190733155231 -35.49682773934567 7 -3 0
10483 3961 7 0.417 14.764396650274067 12.166984564786882 -38.84969643885892 2 2 1
10177 845 6 -0.834 13.02716308491965 14.466807966031347 -38.55599130405514 13 1 1
10250 845 7 0.417 13.368084626719737 13.583610458571984 -38.41473755399584 13 1 1
11775 658 7 0.417 13.196902578977234 9.94567626139046 -34.468038332245364 11 1 1
11368 801 7 0.417 16.822705380294614 12.78831094946687 -40.56025446060404 2 3 1
11367 801 6 -0.834 16.598462569271675 12.239280624260509 -39.80892550213627 2 3 1
11370 801 7 0.417 17.431565533796448 11.855971724022526 -39.53463924129786 2 3 1
12428 1951 7 0.417 11.711318467807494 11.615391539288938 -38.746540772932235 -6 -6 1
12425 1951 7 0.417 10.41476778012686 12.384215817766039 -38.887004832806696 -6 -6 1
991 1164 6 -0.834 15.335784776237146 9.964762187398431 -41.20214021014101 9 1 0
10448 1838 6 -0.834 14.868489823853874 16.870143382380522 -39.65816171544612 7 -3 1
2006 1306 7 0.417 12.553715682268022 14.801131997502166 -40.12537888960514 -7 -2 0
4738 3248 7 0.417 14.545156387910557 14.380610043074233 -34.78821602970567 7 -3 0
4739 3248 6 -0.834 14.1367679170022 13.525149505042869 -34.920968859184725 7 -3 0
11693 658 6 -0.834 13.450327999947778 9.227955834105721 -35.04844233328989 11 1 1
10329 2110 7 0.417 17.870411837523662 14.362311757241446 -39.863291468896335 0 5 0
387 1986 6 -0.834 16.797349942965894 12.321200784872039 -35.24641443982473 -2 8 1
11258 3903 7 0.417 12.90082471159471 16.085642935457837 -34.34335899469958 3 -1 1
9755 3819 7 0.417 15.380259047265605 16.38671988260179 -34.57438691019201 -10 4 1
10327 2110 7 0.417 17.35119843964845 15.732202717864563 -39.48161873880974 0 5 0
1216 207 7 0.417 17.674722206673255 15.11576216291543 -35.028929965727386 5 1 0
3273 1329 6 -0.834 18.19238773759721 14.355174863802059 -36.43583193417495 -6 -4 0
281 2077 7 0.417 10.917231682270575 11.717697741295664 -40.929435935403774 3 6 0
390 1986 7 0.417 15.863913554934483 12.518233476023392 -35.32448489243103 -2 8 1
9756 3819 6 -0.834 14.713562185017615 16.19623061537553 -35.23427052546019 -10 4 1
12218 983 7 0.417 11.706763305151412 16.93761936345564 -40.47868658534189 3 3 1
3465 383 7 0.417 0.8790318085465887 4.658168865086008 -34.07729298220029 -1 -2 0
8052 2649 7 0.417 8.747405722428981 6.685530811004652 -34.25959720652116 -4 3 1
11553 4072 7 0.417 3.1316767790016704 4.4119619950654805 -33.8569307562463 4 1 1
11634 4072 6 -0.834 3.8956575489240004 4.155795500821445 -33.340276679249975 4 1 1
9071 1677 7 0.417 1.2886782899239706 1.2430820248228864 -28.695310067735306 -3 -2 1
4683 1440 7 0.417 6.235423725774022 0.9812952366150054 -30.078761193785475 11 8 0
5419 2408 7 0.417 2.103885854454402 4.98411242408755 -29.30724329718138 5 -9 0
12623 2148 7 0.417 8.744048871315467 2.0937992967095567 -33.400851547418696 1 -7 0
8563 626 7 0.417 -0.032022441755112846 8.121587518858542 -29.878735221725996 0 -2 1
12621 2148 7 0.417 7.445877928596184 1.3961567061571722 -33.05456985642798 1 -7 0
4714 352 7 0.417 -0.07269259941470235 7.116382931765525 -32.078392863067556 -8 -1 0
1568 4064 6 -0.834 2.5981400553621534 6.645311676197176 -28.100562873742746 6 -5 1
2037 3360 7 0.417 6.426543779621006 1.2202631093352565 -27.410491142503624 -3 4 0
1465 58 7 0.417 4.282384601345284 5.530294703911595 -31.911676925837668 3 4 0
2084 58 6 -0.834 4.808535237121069 6.07239377738962 -31.32387527096204 3 4 0
2085 58 7 0.417 4.405552271298478 6.939296076237133 -31.371861112447213 3 4 0
12193 4072 7 0.417 3.532370007015575 3.6732181988318238 -32.597742994850314 4 1 1
10917 3770 6 -0.834 1.8680233363965368 2.2655921519521223 -32.740834557794535 8 6 1
10847 3770 7 0.417 1.2988689356686132 2.518489772174107 -32.013977094389844 8 6 1
10583 2682 7 0.417 2.9957324634699547 1.0952676632905223 -33.20994714396672 -2 -2 1
4761 1440 7 0.417 5.714687013931128 2.359154867442322 -30.428323993363904 11 8 0
3374 3398 6 -0.834 1.6773946482867965 6.692799050116542 -32.26515626768064 -1 10 0
5568 2451 6 -0.834 3.5668374291286833 8.725756310321492 -31.722046330466092 2 -3 0
467 66 6 -0.834 2.4679514889506353 1.6928639422074236 -30.017081505179966 0 6 0
470 66 7 0.417 2.1571833664960995 1.125480549873168 -30.722570277532242 0 6 0
3372 3398 7 0.417 1.7992234994960192 5.958646649978771 -31.663165297869426 -1 10 0
9604 2647 7 0.417 5.8801062093299645 4.666742497212992 -30.805721474526692 1 -5 1
9607 2647 6 -0.834 6.49901237833648 3.972596907047844 -30.579148960948764 1 -5 1
9605 2647 7 0.417 6.894074099224198 4.262317067698159 -29.756833379078508 1 -5 1
30 3105 7 0.417 7.179513655956285 4.769216865907522 -33.42258563037926 -1 13 0
466 66 7 0.417 3.232364041653096 1.238556353809458 -29.662825867830136 0 6 0
35 3105 6 -0.834 7.687286078568691 4.937226366309277 -32.62876218653425 -1 13 0
13052 3105 7 0.417 7.325230788928773 4.333642575248742 -31.980056513986497 -1 13 0
10916 3770 7 0.417 1.5042671251153537 2.720959219578881 -33.50013495181003 8 6 1
4199 1440 6 -0.834 5.4818153209016725 1.4312828790049061 -30.460604462368465 11 8 0
11800 3928 6 -0.834 6.595292833361277 4.855571234226187 -27.70055491504938 6 11 1
3375 3398 7 0.417 2.507189568887691 7.168919776524508 -32.23402509733614 -1 10 0
1495 4064 7 0.417 2.0145037958779994 7.103122779534671 -28.70553755516402 6 -5 1
5421 2408 6 -0.834 2.1248387941073617 4.5149684843995175 -30.141316761221276 5 -9 0
12356 3928 7 0.417 5.980413997001783 4.130449529461844 -27.58946600280703 6 11 1
1573 4064 7 0.417 3.1338671197074386 7.337787251300098 -27.713662251923623 6 -5 1
427 1208 6 -0.834 7.352280208644483 8.239947201210322 -31.792179569157376 10 -1 0
429 1208 7 0.417 6.826464105550908 7.4473417640870965 -31.68488495867844 10 -1 0
428 1208 7 0.417 7.818037221751556 8.333276197887598 -30.9611708325155 10 -1 0
12620 2148 6 -0.834 7.960774755123623 1.7120692800376318 -33.797062950695874 1 -7 0
1938 1087 7 0.417 8.597968706046332 8.685235962390971 -33.16863713442777 0 11 0
5420 2408 7 0.417 2.3898781565028315 3.624910979591121 -29.909435696433555 5 -9 0
2036 3360 6 -0.834 7.362704663343768 1.0257231748376352 -27.454967816313555 -3 4 0
8681 3858 7 0.417 3.055041654169872 5.114806910850686 -27.460195356899682 0 7 1
3411 1352 7 0.417 0.1412625458913074 8.58742299532902 -27.72393230144425 -1 8 0
10106 597 7 0.417 8.204253518461622 0.8333854807733667 -30.14377121460504 -1 -3 1
2035 3360 7 0.417 7.788646297325375 1.8807802307882446 -27.394394418121685 -3 4 0
10884 906 7 0.417 18.020518450767213 4.573177216142068 -33.99500588200552 -4 3 1
5557 370 7 0.417 13.688945675284495 1.0906557400617924 -31.841549461259447 4 0 0
8931 584 6 -0.834 9.761274828103565 2.255636937120148 -30.167318252474708 1 3 1
767 3134 6 -0.834 14.615828320444818 1.2246645968967207 -29.56981173373122 1 3 0
2876 2333 7 0.417 15.280512059818935 8.417077356570898 -32.78123956351313 -3 -7 0
8932 584 7 0.417 10.307201726816688 2.8167020252146067 -29.61651295869857 1 3 1
8390 584 7 0.417 10.015447567846943 2.4781331183487203 -31.062922184696973 1 3 1
4100 2429 7 0.417 11.926295709559694 6.46968657962995 -27.6654540897811 0 12 0
5558 370 6 -0.834 13.007039226049226 0.7838081887803857 -32.43909935502686 4 0 0
13578 1978 7 0.417 12.448487321906425 4.432627287761519 -33.63492455777284 0 -8 1
1720 135 6 -0.834 15.240711378962594 7.597259230287199 -28.633421829245975 9 7 0
2151 2198 6 -0.834 14.251256175382858 7.636008289945379 -31.275082225768436 6 -5 0
11921 1905 7 0.417 10.865571659436107 1.9426616309021476 -33.409322937566905 3 5 1
11920 1905 7 0.417 10.81143208655158 3.3616908871479807 -32.8846510255085 3 5 1
11922 1905 6 -0.834 10.438212478356752 2.4904615228567 -32.75091927541699 3 5 1
2154 2198 7 0.417 13.334002430996474 7.780133414131893 -31.0424990222401 6 -5 0
8335 3728 7 0.417 11.055246885220212 7.219970238744884 -31.478734984309952 9 1 1
8334 3728 6 -0.834 11.238312636463252 8.157914527708748 -31.42428695086975 9 1 1
13024 1978 7 0.417 11.900292089017467 5.8242095092077015 -33.86910149409506 0 -8 1
13500 1978 6 -0.834 11.886347735048128 5.100675554155328 -33.242588137722855 0 -8 1
2958 3291 7 0.417 11.846349278795067 4.19568090137381 -28.305349358283898 0 4 0
5023 1446 7 0.417 10.639302407810103 5.318162501383868 -32.114548131380765 4 -6 0
5528 1446 7 0.417 9.254430168751812 5.550836791424916 -31.54899018953501 4 -6 0
5527 1446 6 -0.834 10.181205100241382 5.5605111284771285 -31.309794269106916 4 -6 0
10239 661 7 0.417 16.13300680248253 2.201688172355416 -30.496027635139882 3 3 1
10235 661 7 0.417 16.82935991682986 2.8767666829885745 -31.65844519312362 3 3 1
10238 661 6 -0.834 16.767398652045866 2.0417019203391638 -31.19471759791793 3 3 1
2149 2198 7 0.417 14.704242632942721 7.568685167012302 -30.434554941442236 6 -5 0
12893 3151 6 -0.834 11.906536434600776 5.649752368042519 -29.330639873525023 7 4 0
2532 1420 7 0.417 15.151595222405376 5.994067985724872 -31.812444602800674 1 0 0
2537 1420 7 0.417 15.681248431969152 5.400343694989484 -33.100392595568984 1 0 0
2535 1420 6 -0.834 15.921146845279667 5.567094802479538 -32.1888793498355 1 0 0
12895 3151 7 0.417 11.336397476415177 5.381859579221409 -30.051328381072018 7 4 0
3798 3417 7 0.417 15.019768875682903 4.000727007376853 -29.117276592745277 3 3 0
4365 3417 7 0.417 14.68029831080668 5.472289082082828 -29.011815180976598 3 3 0
12890 3151 7 0.417 12.78296226136499 5.37977325557202 -29.604883672262524 7 4 0
3797 3417 6 -0.834 14.314785406640624 4.628243485555813 -29.276776073891774 3 3 0
11485 4049 7 0.417 17.73370498235441 6.165682818371666 -32.16748811187982 4 7 1
4182 2190 7 0.417 17.540865218867257 0.9215250240814029 -32.203926568363094 -7 0 0
2960 3291 6 -0.834 11.320693375753768 3.5177957734223666 -27.880643101438423 0 4 0
1718 135 7 0.417 15.181810687882791 8.27102280463165 -27.956083002154223 9 7 0
2959 3291 7 0.417 11.960173947746572 2.8742347375028774 -27.5755008057341 0 4 0
768 3134 7 0.417 14.78439281580693 1.6440174779752659 -28.726044168893274 1 3 0
11081 2014 7 0.417 13.197827288443223 2.0832108713385677 -34.078251854362435 2 10 1
1722 135 7 0.417 16.14759377867974 7.640398894845111 -28.93661002904809 9 7 0
11455 906 6 -0.834 17.645093838734898 3.741978121374141 -34.285490836252066 -4 3 1
4524 2360 7 0.417 9.365835025818955 8.407559745374318 -29.13168930878318 -4 7 0
2870 2333 7 0.417 16.68790522604482 8.443847360954264 -33.33836824630124 -3 -7 0
1397 3324 6 -0.834 17.872124865690466 7.494892363301894 -29.396156632536815 10 -5 0
8336 3728 7 0.417 10.636011982445755 8.556831869398309 -32.05223261852346 9 1 1
2871 2333 6 -0.834 15.768371409633893 8.44819062077282 -33.60418564694406 -3 -7 0
1393 3324 7 0.417 18.088114409140577 6.622245951746153 -29.72487122338317 10 -5 0
1853 177 7 0.417 18.307483792651933 1.8055326063143702 -28.439092984200137 -7 4 0
9747 2798 7 0.417 18.282190351565674 4.190873137499038 -27.222965944209022 -7 11 1
11479 4049 7 0.417 18.467532646346775 6.748048561162747 -33.35668978733184 4 7 1
8676 2604 7 0.417 2.8798632690438764 16.647574379551088 -30.214770880567052 -2 11 1
12117 1637 7 0.417 5.46646028002066 15.802453319310327 -28.925513719609697 -6 2 1
2363 325 7 0.417 2.1464350292469154 9.368396069656846 -33.82346208953803 3 0 0
2510 2250 6 -0.834 1.3962634152927509 16.027171203230992 -32.04739168650579 5 0 0
8757 2604 6 -0.834 3.8247353790161442 16.63674133762181 -30.062061789988917 -2 11 1
4758 2406 7 0.417 6.317365356578782 12.30418404345869 -34.01424039531956 2 3 0
415 3123 7 0.417 0.4765671235333573 16.89722106216352 -30.802316620631544 -2 3 0
1885 2250 7 0.417 1.7780309047502705 16.858190889928512 -32.330018185915144 5 0 0
5569 2451 7 0.417 3.6998813918658096 9.25442812072281 -32.50882422801317 2 -3 0
5063 2451 7 0.417 3.7660448600405965 9.319008270681332 -30.997765359829828 2 -3 0
10796 687 7 0.417 8.413488980540796 16.665176394925233 -31.434048252538126 2 -5 1
5202 410 6 -0.834 6.359352602375354 10.588411142707177 -33.28261212362861 -8 -2 0
5281 410 7 0.417 6.18844550891406 10.33744482752478 -34.190367508615914 -8 -2 0
2284 325 7 0.417 1.3010215648671253 9.130545839482949 -32.59035340858571 3 0 0
12045 1637 7 0.417 5.2920587904722645 16.80953335516001 -27.808720879452743 -6 2 1
12118 1637 6 -0.834 5.851841551238473 16.0887640025294 -28.09743004473024 -6 2 1
1272 253 7 0.417 8.304744384542813 10.49383759055731 -30.429783925293144 5 14 0
11369 2920 7 0.417 2.404687416935983 13.87564851497009 -28.034324391355668 -2 4 1
1271 253 6 -0.834 8.460649832487002 11.402557339823133 -30.68695961715415 5 14 0
2283 325 6 -0.834 1.251569421284255 9.173289052489572 -33.54530961141521 3 0 0
3986 3474 6 -0.834 0.026565354657856338 13.367854291004857 -30.227209047844546 2 5 0
8872 3847 7 0.417 4.552086013560998 10.870145260502776 -33.380195553723475 3 -2 1
8874 3847 6 -0.834 3.6650494283072628 10.78032728419996 -33.728504251720665 3 -2 1
4057 3474 7 0.417 0.25076214667923524 13.430125778340212 -31.15568693875087 2 5 0